ITEM: TIMESTEP
4000
ITEM: NUMBER OF ATOMS
330
ITEM: BOX BOUNDS pp pp pp
3.6231996625 357.8768003375
-9.7196979683 371.2196979683
0.1077735483 10.7372264517
ITEM: ATOMS x y c_peratom1 c_peratom2 c_peratom4
193.242 172.028 -80073.7 3.23516e05 2.86962e05
196.779 172.288 -89454.8 5.66259e05 3.34272e05
195.018 172.157 -78448.7 4.37823e05 3.25843e05
198.527 172.416 -87234.9 6.83701e05 3.10475e05
200.254 172.54 -1.46422e05 7.92553e05 2.54454e05
203.67 172.758 -44261.2 9.48333e05 57580.0
189.613 173.668 -2.19786e05 75709.2 1.21936e05
189.538 175.528 -3.4523e05 49514.4 64964.6
187.774 175.445 -3.68882e05 28164.4 40333.4
191.392 173.773 -1.65502e05 1.41578e05 1.8234e05
193.176 173.904 -1.0304e05 2.41729e05 2.51717e05
193.081 175.766 -1.76613e05 1.4958e05 1.62935e05
191.304 175.633 -2.81567e05 84633.4 91477.3
191.306 175.634 -2.78869e05 88435.4 1.00628e05
194.956 174.05 -63947.6 3.90314e05 3.21021e05
196.725 174.207 -76972.4 5.67216e05 3.59596e05
196.726 174.21 -61248.9 5.76049e05 3.60095e05
194.864 175.927 -93525.7 2.95384e05 2.69952e05
198.472 174.365 -1.06674e05 7.51161e05 3.37165e05
200.192 174.519 -1.44197e05 9.06181e05 2.46644e05
201.89 174.652 -90096.5 1.02798e06 1.08111e05
203.591 174.756 -12784.6 1.08021e06 -24406.3
201.787 176.669 7778.98 1.22642e06 -14059.1
203.492 176.762 1.60455e05 1.20135e06 -1.33019e05
201.79 176.671 1210.44 1.22659e06 -15714.0
205.308 174.823 1.07402e05 1.04678e06 -85970.5
207.045 174.873 1.69967e05 9.77759e05 -1.0054e05
206.981 176.835 2.50355e05 9.82872e05 -1.15758e05
205.227 176.807 2.45948e05 1.08382e06 -1.33226e05
205.228 176.806 2.33239e05 1.06999e06 -1.30087e05
185.914 179.111 2.13499e05 1.95044e05 2309.65
187.631 179.166 1.82859e05 1.92671e05 33.1626
187.706 177.309 -4.33544e05 -2.46927e05 26064.2
189.354 179.253 2.81909e05 2.36992e05 2336.18
191.2 177.495 -3.53421e05 -2.10374e05 25017.3
205.158 178.776 3.62474e05 1.05777e06 -1.4027e05
206.931 178.787 3.27168e05 9.6135e05 -99456.4
206.899 180.733 3.67993e05 9.34083e05 -39370.0
206.928 178.791 3.17302e05 9.5578e05 -1.02078e05
208.704 178.8 2.87862e05 8.87373e05 -74844.1
208.684 180.737 3.27714e05 8.70058e05 -26656.4
208.683 180.735 3.12033e05 8.66629e05 -30985.3
210.467 180.738 2.74382e05 8.1842e05 -23447.3
184.194 184.324 2.45652e05 2.2658e05 217.155
187.631 184.236 2.09939e05 2.01882e05 -700.185
208.684 182.67 3.20651e05 8.70694e05 29597.5
210.466 182.666 2.73945e05 8.22105e05 15735.7
210.467 182.666 2.71095e05 8.16515e05 22775.0
212.248 182.666 2.42207e05 7.81044e05 14716.8
185.963 186.156 -4.60929e05 -2.42074e05 865.223
187.773 187.96 -3.66358e05 27683.7 -44809.6
187.707 186.095 -4.41435e05 -2.45578e05 -25662.7
187.706 186.093 -4.36369e05 -2.40975e05 -25720.9
210.481 184.6 2.55283e05 8.32471e05 57698.2
208.745 186.551 2.29808e05 9.08945e05 1.00573e05
208.705 184.607 2.82334e05 8.87002e05 79742.9
212.282 186.526 2.11176e05 8.088e05 70698.3
212.258 184.589 2.33718e05 8.00403e05 46552.1
184.258 188.067 -4.42625e05 5937.88 -10858.7
186.059 189.884 -2.94195e05 4702.9 -60431.9
187.836 189.822 -2.58009e05 38828.1 -78003.2
187.835 189.818 -2.55052e05 39727.6 -89792.9
207.113 190.507 87983.3 9.51737e05 61148.5
210.553 188.481 1.71179e05 8.62084e05 90181.9
208.855 190.463 1.0816e05 9.17472e05 77935.1
208.795 188.504 1.64794e05 9.18173e05 1.00661e05
210.603 190.431 1.31153e05 8.60507e05 83269.6
210.603 190.434 1.41623e05 8.68152e05 89452.0
184.316 191.787 -2.30985e05 14904.9 -52346.0
186.1 191.74 -2.15842e05 34436.4 -93279.4
186.131 193.591 -1.32032e05 84166.7 -1.18702e05
187.884 191.676 -1.78314e05 70125.4 -1.27868e05
187.922 193.529 -1.2558e05 1.15514e05 -1.59334e05
189.671 191.595 -1.43509e05 1.26308e05 -1.74042e05
189.714 193.454 -85907.4 1.7781e05 -2.10078e05
189.672 191.597 -1.277e05 1.30952e05 -1.68173e05
203.791 194.599 -1.04465e05 7.66608e05 -1.41385e05
207.175 192.48 26472.5 9.0394e05 14351.8
205.512 194.516 -79809.7 8.14878e05 -84302.6
210.658 192.385 74633.3 8.46258e05 63163.6
208.974 194.388 10101.3 8.42638e05 13420.8
208.915 192.425 50129.4 8.77163e05 47214.8
187.951 195.387 -66916.6 1.69243e05 -1.76773e05
189.762 197.185 -32824.0 2.64886e05 -2.25346e05
191.53 195.238 -50647.0 2.92583e05 -2.59045e05
193.328 197.042 -47404.8 3.8739e05 -2.64489e05
193.314 195.15 -59328.9 3.75457e05 -2.88763e05
193.311 195.154 -59280.8 3.7213e05 -2.91039e05
195.094 196.969 -80128.4 4.52147e05 -2.7429e05
196.858 196.884 -99944.5 5.10728e05 -2.76311e05
195.101 196.963 -70984.8 4.50109e05 -2.82919e05
200.359 196.717 -1.1295e05 6.20763e05 -2.3496e05
198.613 196.803 -1.13777e05 5.6936e05 -2.60342e05
202.097 196.636 -1.20365e05 6.60876e05 -2.00035e05
203.827 196.556 -1.0325e05 7.00558e05 -1.60945e05
203.866 198.5 -1.1194e05 6.57684e05 -1.6743e05
207.292 196.408 -60417.4 7.79181e05 -67647.9
205.598 198.433 -93505.4 6.97284e05 -1.27545e05
205.558 196.482 -98757.4 7.34188e05 -1.15832e05
191.557 198.997 -28392.1 3.45105e05 -2.34802e05
193.339 198.933 -45601.3 3.86224e05 -2.42712e05
195.108 198.869 -56005.4 4.39528e05 -2.53536e05
196.877 200.71 -54257.2 4.69324e05 -2.38377e05
196.872 198.799 -88192.3 4.91404e05 -2.59713e05
198.626 198.727 -87263.3 5.37242e05 -2.42673e05
200.393 200.579 -73298.9 5.4461e05 -2.18881e05
198.638 200.644 -80096.1 5.11194e05 -2.35168e05
202.124 198.576 -1.02109e05 6.21882e05 -1.95077e05
193.243 172.03 -80227.2 3.17292e05 2.90941e05
196.78 172.287 -96941.4 5.61129e05 3.39776e05
200.254 172.539 -1.49221e05 7.92836e05 2.53571e05
201.964 172.655 -1.11512e05 8.85626e05 1.54709e05
201.964 172.655 -1.11512e05 8.85626e05 1.54709e05
203.673 172.761 -52650.0 9.38031e05 51247.7
189.537 175.527 -3.38596e05 53102.4 57395.6
191.394 173.773 -1.6698e05 1.38693e05 1.79226e05
193.08 175.764 -1.84188e05 1.41216e05 1.60147e05
194.865 175.925 -87052.3 2.92017e05 2.72987e05
194.956 174.05 -59106.8 3.85256e05 3.219e05
194.865 175.925 -87052.3 2.92017e05 2.72987e05
198.473 174.365 -1.03891e05 7.47862e05 3.38969e05
201.893 174.653 -98891.7 1.02876e06 1.08521e05
203.59 174.753 2364.31 1.08482e06 -25911.3
203.59 174.753 2364.31 1.08482e06 -25911.3
203.494 176.761 1.40902e05 1.19685e06 -1.41425e05
207.044 174.869 1.47451e05 9.80146e05 -1.00784e05
205.304 174.825 1.04415e05 1.04147e06 -89888.1
206.981 176.835 2.36264e05 9.81519e05 -1.20766e05
207.044 174.869 1.47451e05 9.80146e05 -1.00784e05
208.743 176.856 2.29776e05 9.07004e05 -1.00311e05
208.743 176.856 2.29776e05 9.07004e05 -1.00311e05
185.963 177.251 -4.51986e05 -2.40966e05 -3535.17
185.963 177.251 -4.51986e05 -2.40966e05 -3535.17
185.911 179.112 2.22277e05 1.98438e05 -2111.42
187.633 179.169 2.14162e05 2.0198e05 3629.35
187.633 179.169 2.14162e05 2.0198e05 3629.35
189.452 177.395 -4.18462e05 -2.14389e05 21316.4
187.709 177.313 -4.29598e05 -2.36391e05 22491.4
189.361 179.253 2.78797e05 2.33075e05 5468.61
189.452 177.395 -4.18462e05 -2.14389e05 21316.4
191.2 177.492 -3.58324e05 -2.14589e05 24594.9
205.153 178.775 3.65196e05 1.06407e06 -1.46129e05
206.899 180.733 3.69697e05 9.28863e05 -37421.4
208.705 178.797 2.94144e05 8.84359e05 -78832.8
210.483 178.805 2.52559e05 8.2855e05 -60165.5
210.483 178.805 2.52559e05 8.2855e05 -60165.5
210.464 180.739 2.73615e05 8.1846e05 -18177.6
184.189 184.325 2.41376e05 2.23928e05 7119.07
185.914 184.295 2.08223e05 1.94216e05 -1975.95
187.634 184.238 1.87612e05 1.96607e05 -9524.35
185.914 184.295 2.08223e05 1.94216e05 -1975.95
208.686 182.667 3.13935e05 8.68191e05 31564.8
212.244 182.666 2.48068e05 7.92399e05 18972.3
184.223 186.191 -4.85591e05 -2.29617e05 11075.1
185.963 186.156 -4.58219e05 -2.54349e05 6170.63
184.223 186.191 -4.85591e05 -2.29617e05 11075.1
187.776 187.958 -3.65233e05 16643.9 -43653.0
210.48 184.598 2.54277e05 8.37061e05 62969.2
210.51 186.536 2.12128e05 8.47938e05 83249.4
208.746 186.551 2.34858e05 9.02914e05 1.06932e05
210.51 186.536 2.12128e05 8.47938e05 83249.4
212.258 184.596 2.36622e05 7.91061e05 50001.8
212.28 186.527 2.30482e05 8.04219e05 71083.0
212.258 184.596 2.36622e05 7.91061e05 50001.8
186.013 188.023 -4.01268e05 6863.66 -19540.1
184.287 189.93 -3.22298e05 -10158.2 -26738.5
184.256 188.066 -4.34294e05 5806.58 3257.57
184.287 189.93 -3.22298e05 -10158.2 -26738.5
186.061 189.883 -2.86227e05 9808.13 -58316.1
186.013 188.023 -4.01268e05 6863.66 -19540.1
210.551 188.483 1.82828e05 8.64057e05 85553.1
208.847 190.462 1.14609e05 8.97394e05 81962.9
212.316 188.462 1.87424e05 8.1436e05 81994.3
212.316 188.462 1.87424e05 8.1436e05 81994.3
184.315 191.785 -2.34103e05 12877.7 -53859.1
186.099 191.74 -2.09401e05 39127.6 -92564.7
186.13 193.591 -1.36999e05 82178.9 -1.20388e05
186.099 191.74 -2.09401e05 39127.6 -92564.7
187.923 193.529 -1.13834e05 1.23707e05 -1.63136e05
187.885 191.676 -1.84136e05 73219.1 -1.26832e05
189.715 193.453 -85881.2 1.83661e05 -2.09325e05
187.923 193.529 -1.13834e05 1.23707e05 -1.63136e05
207.184 192.478 14275.1 8.98537e05 20052.2
207.241 194.446 -23414.9 8.37582e05 -29441.6
205.515 194.519 -60288.0 8.09671e05 -80872.3
207.241 194.446 -23414.9 8.37582e05 -29441.6
210.653 192.384 96236.4 8.53131e05 65370.0
208.969 194.388 -19105.1 8.35656e05 9057.21
189.742 195.318 -52539.9 2.32397e05 -2.23061e05
187.947 195.387 -71443.1 1.69727e05 -1.81316e05
189.757 197.186 -32961.6 2.63427e05 -2.29894e05
189.742 195.318 -52539.9 2.32397e05 -2.23061e05
191.546 197.118 -39212.5 3.24152e05 -2.56194e05
191.535 195.237 -44766.2 3.10424e05 -2.60359e05
193.33 197.043 -60494.3 3.90611e05 -2.78884e05
191.546 197.118 -39212.5 3.24152e05 -2.56194e05
196.865 196.882 -81300.8 5.07433e05 -2.71913e05
198.611 196.8 -1.11542e05 5.63999e05 -2.56161e05
200.35 196.719 -1.19938e05 6.10193e05 -2.29185e05
198.611 196.8 -1.11542e05 5.63999e05 -2.56161e05
202.094 196.636 -1.18367e05 6.61525e05 -2.01515e05
202.094 196.636 -1.18367e05 6.61525e05 -2.01515e05
203.833 196.555 -1.13751e05 7.05841e05 -1.66904e05
203.861 198.503 -1.00543e05 6.59678e05 -1.64322e05
203.861 198.503 -1.00543e05 6.59678e05 -1.64322e05
205.563 196.479 -94430.6 7.48439e05 -1.16042e05
207.293 196.409 -65791.4 7.74549e05 -66463.7
205.601 198.43 -90494.7 6.92736e05 -1.33498e05
205.563 196.479 -94430.6 7.48439e05 -1.16042e05
193.332 198.937 -44310.8 3.92631e05 -2.55993e05
191.55 199.0 -24994.7 3.38488e05 -2.38752e05
193.332 198.937 -44310.8 3.92631e05 -2.55993e05
195.106 198.87 -71273.6 4.35415e05 -2.69123e05
196.873 200.713 -71466.9 4.73753e05 -2.42745e05
200.38 198.651 -1.06736e05 5.72399e05 -2.1733e05
198.632 198.724 -96887.1 5.26673e05 -2.49019e05
200.394 200.576 -1.0706e05 5.403e05 -2.17934e05
200.38 198.651 -1.06736e05 5.72399e05 -2.1733e05
202.119 198.578 -1.02631e05 6.18362e05 -1.89251e05
193.242 172.028 -80073.7 3.23516e05 2.86962e05
195.018 172.157 -78448.7 4.37823e05 3.25843e05
195.016 172.156 -72885.9 4.46249e05 3.29644e05
196.779 172.288 -89454.8 5.66259e05 3.34272e05
198.525 172.414 -99322.0 6.8355e05 3.09781e05
198.527 172.416 -87234.9 6.83701e05 3.10475e05
200.254 172.54 -1.46422e05 7.92553e05 2.54454e05
201.964 172.655 -1.16278e05 8.89394e05 1.54728e05
203.67 172.758 -44261.2 9.48333e05 57580.0
187.774 175.446 -3.64669e05 20027.0 42273.3
187.774 175.445 -3.68882e05 28164.4 40333.4
189.613 173.668 -2.19786e05 75709.2 1.21936e05
189.612 173.668 -2.18358e05 81371.4 1.23064e05
189.538 175.528 -3.4523e05 49514.4 64964.6
193.175 173.903 -1.07093e05 2.43526e05 2.53202e05
193.176 173.904 -1.0304e05 2.41729e05 2.51717e05
191.392 173.773 -1.65502e05 1.41578e05 1.8234e05
191.304 175.633 -2.81567e05 84633.4 91477.3
193.081 175.766 -1.76613e05 1.4958e05 1.62935e05
196.725 174.207 -76972.4 5.67216e05 3.59596e05
194.956 174.05 -63947.6 3.90314e05 3.21021e05
200.187 174.517 -1.50103e05 9.00653e05 2.45868e05
198.472 174.365 -1.06674e05 7.51161e05 3.37165e05
200.192 174.519 -1.44197e05 9.06181e05 2.46644e05
201.79 176.671 1210.44 1.22659e06 -15714.0
201.89 174.652 -90096.5 1.02798e06 1.08111e05
203.492 176.762 1.60455e05 1.20135e06 -1.33019e05
205.308 174.823 1.07402e05 1.04678e06 -85970.5
205.227 176.807 2.45948e05 1.08382e06 -1.33226e05
206.981 176.835 2.50355e05 9.82872e05 -1.15758e05
208.747 176.855 2.40395e05 9.16068e05 -1.003e05
185.961 177.249 -4.69192e05 -2.53497e05 -6561.73
185.914 179.111 2.13499e05 1.95044e05 2309.65
187.706 177.309 -4.33544e05 -2.46927e05 26064.2
189.453 177.395 -4.15039e05 -2.14016e05 33330.7
189.354 179.253 2.81909e05 2.36992e05 2336.18
191.2 177.495 -3.53421e05 -2.10374e05 25017.3
206.928 178.791 3.17302e05 9.5578e05 -1.02078e05
205.158 178.776 3.62474e05 1.05777e06 -1.4027e05
206.899 180.733 3.67993e05 9.34083e05 -39370.0
210.48 178.806 2.58733e05 8.42952e05 -68773.4
208.704 178.8 2.87862e05 8.87373e05 -74844.1
208.683 180.735 3.12033e05 8.66629e05 -30985.3
210.467 180.738 2.74382e05 8.1842e05 -23447.3
184.194 184.324 2.45652e05 2.2658e05 217.155
185.912 184.293 2.18743e05 1.95704e05 1413.09
187.631 184.236 2.09939e05 2.01882e05 -700.185
210.467 182.666 2.71095e05 8.16515e05 22775.0
208.684 182.67 3.20651e05 8.70694e05 29597.5
212.248 182.666 2.42207e05 7.81044e05 14716.8
184.224 186.191 -5.03679e05 -2.19106e05 8085.28
185.963 186.156 -4.60929e05 -2.42074e05 865.223
187.707 186.095 -4.41435e05 -2.45578e05 -25662.7
187.773 187.96 -3.66358e05 27683.7 -44809.6
208.704 184.604 3.01446e05 8.85507e05 78662.5
208.705 184.607 2.82334e05 8.87002e05 79742.9
210.481 184.6 2.55283e05 8.32471e05 57698.2
210.514 186.536 2.23883e05 8.54086e05 83586.0
208.745 186.551 2.29808e05 9.08945e05 1.00573e05
212.282 186.526 2.11176e05 8.088e05 70698.3
184.287 189.93 -3.27184e05 -9400.14 -30998.0
184.258 188.067 -4.42625e05 5937.88 -10858.7
186.012 188.025 -3.92714e05 17023.2 -14796.6
186.059 189.884 -2.94195e05 4702.9 -60431.9
187.835 189.818 -2.55052e05 39727.6 -89792.9
207.114 190.504 66285.3 9.4769e05 58512.1
207.113 190.507 87983.3 9.51737e05 61148.5
208.793 188.5 1.92318e05 9.18702e05 1.05376e05
208.795 188.504 1.64794e05 9.18173e05 1.00661e05
210.603 190.431 1.31153e05 8.60507e05 83269.6
210.553 188.481 1.71179e05 8.62084e05 90181.9
208.855 190.463 1.0816e05 9.17472e05 77935.1
212.315 188.464 1.77983e05 8.25001e05 76362.3
184.316 191.787 -2.30985e05 14904.9 -52346.0
186.131 193.591 -1.32032e05 84166.7 -1.18702e05
187.884 191.676 -1.78314e05 70125.4 -1.27868e05
189.671 191.595 -1.43509e05 1.26308e05 -1.74042e05
189.714 193.454 -85907.4 1.7781e05 -2.10078e05
203.791 194.599 -1.04465e05 7.66608e05 -1.41385e05
203.79 194.602 -1.1181e05 7.72337e05 -1.52575e05
207.175 192.48 26472.5 9.0394e05 14351.8
205.512 194.516 -79809.7 8.14878e05 -84302.6
207.237 194.452 -39.9406 8.39775e05 -23659.6
208.908 192.426 63996.3 8.87443e05 50044.9
208.915 192.425 50129.4 8.77163e05 47214.8
210.658 192.385 74633.3 8.46258e05 63163.6
208.974 194.388 10101.3 8.42638e05 13420.8
189.743 195.317 -57732.1 2.18931e05 -2.1819e05
187.951 195.387 -66916.6 1.69243e05 -1.76773e05
189.762 197.185 -32824.0 2.64886e05 -2.25346e05
193.314 195.15 -59328.9 3.75457e05 -2.88763e05
191.551 197.113 -38902.6 3.21316e05 -2.47595e05
191.53 195.238 -50647.0 2.92583e05 -2.59045e05
193.328 197.042 -47404.8 3.8739e05 -2.64489e05
195.101 196.963 -70984.8 4.50109e05 -2.82919e05
196.858 196.884 -99944.5 5.10728e05 -2.76311e05
200.359 196.717 -1.1295e05 6.20763e05 -2.3496e05
203.827 196.556 -1.0325e05 7.00558e05 -1.60945e05
207.292 196.408 -60417.4 7.79181e05 -67647.9
205.598 198.433 -93505.4 6.97284e05 -1.27545e05
191.557 198.997 -28392.1 3.45105e05 -2.34802e05
196.87 198.8 -70331.0 4.84836e05 -2.47939e05
196.872 198.799 -88192.3 4.91404e05 -2.59713e05
195.108 198.869 -56005.4 4.39528e05 -2.53536e05
196.877 200.71 -54257.2 4.69324e05 -2.38377e05
198.637 200.647 -61897.2 5.0337e05 -2.31746e05
200.376 198.653 -99279.9 5.89012e05 -2.29202e05
198.638 200.644 -80096.1 5.11194e05 -2.35168e05
198.626 198.727 -87263.3 5.37242e05 -2.42673e05
200.393 200.579 -73298.9 5.4461e05 -2.18881e05
202.124 198.576 -1.02109e05 6.21882e05 -1.95077e05
